ITEM: TIMESTEP                                    
       0                                          
ITEM: NUMBER OF ATOMS                             
             512
ITEM: BOX BOUNDS ss ss ss                         
     0.00000000    39.62096072
     0.00000000     8.11699664
     0.00000000    14.60984856
ITEM: ATOMS x y z                                 
     0.00000000     2.95163514     2.08712122
     0.00000000     0.00000000     0.00000000
     2.55619101     0.00000000     0.00000000
     3.83428652     2.21372636     0.00000000
     1.27809551     2.21372636     0.00000000
     1.27809551     0.73790879     2.08712122
     3.83428652     0.73790879     2.08712122
     5.11238203     2.95163514     2.08712122
     2.55619101     2.95163514     2.08712122
     5.11238203     0.00000000     0.00000000
     7.66857304     0.00000000     0.00000000
     8.94666855     2.21372636     0.00000000
     6.39047753     2.21372636     0.00000000
     6.39047753     0.73790879     2.08712122
     8.94666855     0.73790879     2.08712122
    10.22476406     2.95163514     2.08712122
     7.66857304     2.95163514     2.08712122
    10.22476406     0.00000000     0.00000000
    12.78095507     0.00000000     0.00000000
    14.05905058     2.21372636     0.00000000
    11.50285956     2.21372636     0.00000000
    11.50285956     0.73790879     2.08712122
    14.05905058     0.73790879     2.08712122
    15.33714608     2.95163514     2.08712122
    12.78095507     2.95163514     2.08712122
    15.33714608     0.00000000     0.00000000
    17.89333710     0.00000000     0.00000000
    19.17143260     2.21372636     0.00000000
    16.61524159     2.21372636     0.00000000
    16.61524159     0.73790879     2.08712122
    19.17143260     0.73790879     2.08712122
    20.44952811     2.95163514     2.08712122
    17.89333710     2.95163514     2.08712122
    20.44952811     0.00000000     0.00000000
    23.00571913     0.00000000     0.00000000
    24.28381463     2.21372636     0.00000000
    21.72762362     2.21372636     0.00000000
    21.72762362     0.73790879     2.08712122
    24.28381463     0.73790879     2.08712122
    25.56191014     2.95163514     2.08712122
    23.00571913     2.95163514     2.08712122
    25.56191014     0.00000000     0.00000000
    28.11810115     0.00000000     0.00000000
    29.39619666     2.21372636     0.00000000
    26.84000565     2.21372636     0.00000000
    26.84000565     0.73790879     2.08712122
    29.39619666     0.73790879     2.08712122
    30.67429217     2.95163514     2.08712122
    28.11810115     2.95163514     2.08712122
    30.67429217     0.00000000     0.00000000
    33.23048318     0.00000000     0.00000000
    34.50857869     2.21372636     0.00000000
    31.95238767     2.21372636     0.00000000
    31.95238767     0.73790879     2.08712122
    34.50857869     0.73790879     2.08712122
    35.78667420     2.95163514     2.08712122
    33.23048318     2.95163514     2.08712122
    35.78667420     0.00000000     0.00000000
    38.34286521     0.00000000     0.00000000
    39.62096072     2.21372636     0.00000000
    37.06476970     2.21372636     0.00000000
    37.06476970     0.73790879     2.08712122
    39.62096072     0.73790879     2.08712122
    38.34286521     2.95163514     2.08712122
     0.00000000     4.42745271     0.00000000
     1.27809551     6.64117907     0.00000000
     1.27809551     5.16536150     2.08712122
     2.55619101     7.37908785     2.08712122
     0.00000000     7.37908785     2.08712122
     2.55619101     4.42745271     0.00000000
     5.11238203     4.42745271     0.00000000
     6.39047753     6.64117907     0.00000000
     3.83428652     6.64117907     0.00000000
     3.83428652     5.16536150     2.08712122
     6.39047753     5.16536150     2.08712122
     7.66857304     7.37908785     2.08712122
     5.11238203     7.37908785     2.08712122
     7.66857304     4.42745271     0.00000000
    10.22476406     4.42745271     0.00000000
    11.50285956     6.64117907     0.00000000
     8.94666855     6.64117907     0.00000000
     8.94666855     5.16536150     2.08712122
    11.50285956     5.16536150     2.08712122
    12.78095507     7.37908785     2.08712122
    10.22476406     7.37908785     2.08712122
    12.78095507     4.42745271     0.00000000
    15.33714608     4.42745271     0.00000000
    16.61524159     6.64117907     0.00000000
    14.05905058     6.64117907     0.00000000
    14.05905058     5.16536150     2.08712122
    16.61524159     5.16536150     2.08712122
    17.89333710     7.37908785     2.08712122
    15.33714608     7.37908785     2.08712122
    17.89333710     4.42745271     0.00000000
    20.44952811     4.42745271     0.00000000
    21.72762362     6.64117907     0.00000000
    19.17143260     6.64117907     0.00000000
    19.17143260     5.16536150     2.08712122
    21.72762362     5.16536150     2.08712122
    23.00571913     7.37908785     2.08712122
    20.44952811     7.37908785     2.08712122
    23.00571913     4.42745271     0.00000000
    25.56191014     4.42745271     0.00000000
    26.84000565     6.64117907     0.00000000
    24.28381463     6.64117907     0.00000000
    24.28381463     5.16536150     2.08712122
    26.84000565     5.16536150     2.08712122
    28.11810115     7.37908785     2.08712122
    25.56191014     7.37908785     2.08712122
    28.11810115     4.42745271     0.00000000
    30.67429217     4.42745271     0.00000000
    31.95238767     6.64117907     0.00000000
    29.39619666     6.64117907     0.00000000
    29.39619666     5.16536150     2.08712122
    31.95238767     5.16536150     2.08712122
    33.23048318     7.37908785     2.08712122
    30.67429217     7.37908785     2.08712122
    33.23048318     4.42745271     0.00000000
    35.78667420     4.42745271     0.00000000
    37.06476970     6.64117907     0.00000000
    34.50857869     6.64117907     0.00000000
    34.50857869     5.16536150     2.08712122
    37.06476970     5.16536150     2.08712122
    38.34286521     7.37908785     2.08712122
    35.78667420     7.37908785     2.08712122
    38.34286521     4.42745271     0.00000000
    39.62096072     6.64117907     0.00000000
    39.62096072     5.16536150     2.08712122
     0.00000000     0.00000000     6.26136367
     5.11238203     0.00000000     6.26136367
     2.55619101     0.00000000     6.26136367
    10.22476406     0.00000000     6.26136367
     7.66857304     0.00000000     6.26136367
    15.33714608     0.00000000     6.26136367
    12.78095507     0.00000000     6.26136367
    20.44952811     0.00000000     6.26136367
    17.89333710     0.00000000     6.26136367
    25.56191014     0.00000000     6.26136367
    23.00571913     0.00000000     6.26136367
    30.67429217     0.00000000     6.26136367
    28.11810115     0.00000000     6.26136367
    35.78667420     0.00000000     6.26136367
    33.23048318     0.00000000     6.26136367
    38.34286521     0.00000000     6.26136367
     0.00000000     1.47581757     4.17424245
     1.27809551     3.68954393     4.17424245
     1.27809551     2.21372636     6.26136367
     2.55619101     4.42745271     6.26136367
     0.00000000     4.42745271     6.26136367
     2.55619101     1.47581757     4.17424245
     5.11238203     1.47581757     4.17424245
     6.39047753     3.68954393     4.17424245
     3.83428652     3.68954393     4.17424245
     3.83428652     2.21372636     6.26136367
     6.39047753     2.21372636     6.26136367
     7.66857304     4.42745271     6.26136367
     5.11238203     4.42745271     6.26136367
     7.66857304     1.47581757     4.17424245
    10.22476406     1.47581757     4.17424245
    11.50285956     3.68954393     4.17424245
     8.94666855     3.68954393     4.17424245
     8.94666855     2.21372636     6.26136367
    11.50285956     2.21372636     6.26136367
    12.78095507     4.42745271     6.26136367
    10.22476406     4.42745271     6.26136367
    12.78095507     1.47581757     4.17424245
    15.33714608     1.47581757     4.17424245
    16.61524159     3.68954393     4.17424245
    14.05905058     3.68954393     4.17424245
    14.05905058     2.21372636     6.26136367
    16.61524159     2.21372636     6.26136367
    17.89333710     4.42745271     6.26136367
    15.33714608     4.42745271     6.26136367
    17.89333710     1.47581757     4.17424245
    20.44952811     1.47581757     4.17424245
    21.72762362     3.68954393     4.17424245
    19.17143260     3.68954393     4.17424245
    19.17143260     2.21372636     6.26136367
    21.72762362     2.21372636     6.26136367
    23.00571913     4.42745271     6.26136367
    20.44952811     4.42745271     6.26136367
    23.00571913     1.47581757     4.17424245
    25.56191014     1.47581757     4.17424245
    26.84000565     3.68954393     4.17424245
    24.28381463     3.68954393     4.17424245
    24.28381463     2.21372636     6.26136367
    26.84000565     2.21372636     6.26136367
    28.11810115     4.42745271     6.26136367
    25.56191014     4.42745271     6.26136367
    28.11810115     1.47581757     4.17424245
    30.67429217     1.47581757     4.17424245
    31.95238767     3.68954393     4.17424245
    29.39619666     3.68954393     4.17424245
    29.39619666     2.21372636     6.26136367
    31.95238767     2.21372636     6.26136367
    33.23048318     4.42745271     6.26136367
    30.67429217     4.42745271     6.26136367
    33.23048318     1.47581757     4.17424245
    35.78667420     1.47581757     4.17424245
    37.06476970     3.68954393     4.17424245
    34.50857869     3.68954393     4.17424245
    34.50857869     2.21372636     6.26136367
    37.06476970     2.21372636     6.26136367
    38.34286521     4.42745271     6.26136367
    35.78667420     4.42745271     6.26136367
    38.34286521     1.47581757     4.17424245
    39.62096072     3.68954393     4.17424245
    39.62096072     2.21372636     6.26136367
     0.00000000     5.90327028     4.17424245
     2.55619101     5.90327028     4.17424245
     3.83428652     8.11699664     4.17424245
     1.27809551     8.11699664     4.17424245
     1.27809551     6.64117907     6.26136367
     3.83428652     6.64117907     6.26136367
     5.11238203     5.90327028     4.17424245
     7.66857304     5.90327028     4.17424245
     8.94666855     8.11699664     4.17424245
     6.39047753     8.11699664     4.17424245
     6.39047753     6.64117907     6.26136367
     8.94666855     6.64117907     6.26136367
    10.22476406     5.90327028     4.17424245
    12.78095507     5.90327028     4.17424245
    14.05905058     8.11699664     4.17424245
    11.50285956     8.11699664     4.17424245
    11.50285956     6.64117907     6.26136367
    14.05905058     6.64117907     6.26136367
    15.33714608     5.90327028     4.17424245
    17.89333710     5.90327028     4.17424245
    19.17143260     8.11699664     4.17424245
    16.61524159     8.11699664     4.17424245
    16.61524159     6.64117907     6.26136367
    19.17143260     6.64117907     6.26136367
    20.44952811     5.90327028     4.17424245
    23.00571913     5.90327028     4.17424245
    24.28381463     8.11699664     4.17424245
    21.72762362     8.11699664     4.17424245
    21.72762362     6.64117907     6.26136367
    24.28381463     6.64117907     6.26136367
    25.56191014     5.90327028     4.17424245
    28.11810115     5.90327028     4.17424245
    29.39619666     8.11699664     4.17424245
    26.84000565     8.11699664     4.17424245
    26.84000565     6.64117907     6.26136367
    29.39619666     6.64117907     6.26136367
    30.67429217     5.90327028     4.17424245
    33.23048318     5.90327028     4.17424245
    34.50857869     8.11699664     4.17424245
    31.95238767     8.11699664     4.17424245
    31.95238767     6.64117907     6.26136367
    34.50857869     6.64117907     6.26136367
    35.78667420     5.90327028     4.17424245
    38.34286521     5.90327028     4.17424245
    39.62096072     8.11699664     4.17424245
    37.06476970     8.11699664     4.17424245
    37.06476970     6.64117907     6.26136367
    39.62096072     6.64117907     6.26136367
     1.27809551     0.73790879     8.34848489
     2.55619101     1.47581757    10.43560612
     0.00000000     1.47581757    10.43560612
     6.39047753     0.73790879     8.34848489
     3.83428652     0.73790879     8.34848489
     7.66857304     1.47581757    10.43560612
     5.11238203     1.47581757    10.43560612
    11.50285956     0.73790879     8.34848489
     8.94666855     0.73790879     8.34848489
    12.78095507     1.47581757    10.43560612
    10.22476406     1.47581757    10.43560612
    16.61524159     0.73790879     8.34848489
    14.05905058     0.73790879     8.34848489
    17.89333710     1.47581757    10.43560612
    15.33714608     1.47581757    10.43560612
    21.72762362     0.73790879     8.34848489
    19.17143260     0.73790879     8.34848489
    23.00571913     1.47581757    10.43560612
    20.44952811     1.47581757    10.43560612
    26.84000565     0.73790879     8.34848489
    24.28381463     0.73790879     8.34848489
    28.11810115     1.47581757    10.43560612
    25.56191014     1.47581757    10.43560612
    31.95238767     0.73790879     8.34848489
    29.39619666     0.73790879     8.34848489
    33.23048318     1.47581757    10.43560612
    30.67429217     1.47581757    10.43560612
    37.06476970     0.73790879     8.34848489
    34.50857869     0.73790879     8.34848489
    38.34286521     1.47581757    10.43560612
    35.78667420     1.47581757    10.43560612
    39.62096072     0.73790879     8.34848489
     0.00000000     5.90327028    10.43560612
     0.00000000     2.95163514     8.34848489
     2.55619101     2.95163514     8.34848489
     3.83428652     5.16536150     8.34848489
     1.27809551     5.16536150     8.34848489
     1.27809551     3.68954393    10.43560612
     3.83428652     3.68954393    10.43560612
     5.11238203     5.90327028    10.43560612
     2.55619101     5.90327028    10.43560612
     5.11238203     2.95163514     8.34848489
     7.66857304     2.95163514     8.34848489
     8.94666855     5.16536150     8.34848489
     6.39047753     5.16536150     8.34848489
     6.39047753     3.68954393    10.43560612
     8.94666855     3.68954393    10.43560612
    10.22476406     5.90327028    10.43560612
     7.66857304     5.90327028    10.43560612
    10.22476406     2.95163514     8.34848489
    12.78095507     2.95163514     8.34848489
    14.05905058     5.16536150     8.34848489
    11.50285956     5.16536150     8.34848489
    11.50285956     3.68954393    10.43560612
    14.05905058     3.68954393    10.43560612
    15.33714608     5.90327028    10.43560612
    12.78095507     5.90327028    10.43560612
    15.33714608     2.95163514     8.34848489
    17.89333710     2.95163514     8.34848489
    19.17143260     5.16536150     8.34848489
    16.61524159     5.16536150     8.34848489
    16.61524159     3.68954393    10.43560612
    19.17143260     3.68954393    10.43560612
    20.44952811     5.90327028    10.43560612
    17.89333710     5.90327028    10.43560612
    20.44952811     2.95163514     8.34848489
    23.00571913     2.95163514     8.34848489
    24.28381463     5.16536150     8.34848489
    21.72762362     5.16536150     8.34848489
    21.72762362     3.68954393    10.43560612
    24.28381463     3.68954393    10.43560612
    25.56191014     5.90327028    10.43560612
    23.00571913     5.90327028    10.43560612
    25.56191014     2.95163514     8.34848489
    28.11810115     2.95163514     8.34848489
    29.39619666     5.16536150     8.34848489
    26.84000565     5.16536150     8.34848489
    26.84000565     3.68954393    10.43560612
    29.39619666     3.68954393    10.43560612
    30.67429217     5.90327028    10.43560612
    28.11810115     5.90327028    10.43560612
    30.67429217     2.95163514     8.34848489
    33.23048318     2.95163514     8.34848489
    34.50857869     5.16536150     8.34848489
    31.95238767     5.16536150     8.34848489
    31.95238767     3.68954393    10.43560612
    34.50857869     3.68954393    10.43560612
    35.78667420     5.90327028    10.43560612
    33.23048318     5.90327028    10.43560612
    35.78667420     2.95163514     8.34848489
    38.34286521     2.95163514     8.34848489
    39.62096072     5.16536150     8.34848489
    37.06476970     5.16536150     8.34848489
    37.06476970     3.68954393    10.43560612
    39.62096072     3.68954393    10.43560612
    38.34286521     5.90327028    10.43560612
     0.00000000     7.37908785     8.34848489
     1.27809551     8.11699664    10.43560612
     2.55619101     7.37908785     8.34848489
     5.11238203     7.37908785     8.34848489
     3.83428652     8.11699664    10.43560612
     6.39047753     8.11699664    10.43560612
     7.66857304     7.37908785     8.34848489
    10.22476406     7.37908785     8.34848489
     8.94666855     8.11699664    10.43560612
    11.50285956     8.11699664    10.43560612
    12.78095507     7.37908785     8.34848489
    15.33714608     7.37908785     8.34848489
    14.05905058     8.11699664    10.43560612
    16.61524159     8.11699664    10.43560612
    17.89333710     7.37908785     8.34848489
    20.44952811     7.37908785     8.34848489
    19.17143260     8.11699664    10.43560612
    21.72762362     8.11699664    10.43560612
    23.00571913     7.37908785     8.34848489
    25.56191014     7.37908785     8.34848489
    24.28381463     8.11699664    10.43560612
    26.84000565     8.11699664    10.43560612
    28.11810115     7.37908785     8.34848489
    30.67429217     7.37908785     8.34848489
    29.39619666     8.11699664    10.43560612
    31.95238767     8.11699664    10.43560612
    33.23048318     7.37908785     8.34848489
    35.78667420     7.37908785     8.34848489
    34.50857869     8.11699664    10.43560612
    37.06476970     8.11699664    10.43560612
    38.34286521     7.37908785     8.34848489
    39.62096072     8.11699664    10.43560612
     0.00000000     2.95163514    14.60984856
     0.00000000     0.00000000    12.52272734
     2.55619101     0.00000000    12.52272734
     3.83428652     2.21372636    12.52272734
     1.27809551     2.21372636    12.52272734
     1.27809551     0.73790879    14.60984856
     3.83428652     0.73790879    14.60984856
     5.11238203     2.95163514    14.60984856
     2.55619101     2.95163514    14.60984856
     5.11238203     0.00000000    12.52272734
     7.66857304     0.00000000    12.52272734
     8.94666855     2.21372636    12.52272734
     6.39047753     2.21372636    12.52272734
     6.39047753     0.73790879    14.60984856
     8.94666855     0.73790879    14.60984856
    10.22476406     2.95163514    14.60984856
     7.66857304     2.95163514    14.60984856
    10.22476406     0.00000000    12.52272734
    12.78095507     0.00000000    12.52272734
    14.05905058     2.21372636    12.52272734
    11.50285956     2.21372636    12.52272734
    11.50285956     0.73790879    14.60984856
    14.05905058     0.73790879    14.60984856
    15.33714608     2.95163514    14.60984856
    12.78095507     2.95163514    14.60984856
    15.33714608     0.00000000    12.52272734
    17.89333710     0.00000000    12.52272734
    19.17143260     2.21372636    12.52272734
    16.61524159     2.21372636    12.52272734
    16.61524159     0.73790879    14.60984856
    19.17143260     0.73790879    14.60984856
    20.44952811     2.95163514    14.60984856
    17.89333710     2.95163514    14.60984856
    20.44952811     0.00000000    12.52272734
    23.00571913     0.00000000    12.52272734
    24.28381463     2.21372636    12.52272734
    21.72762362     2.21372636    12.52272734
    21.72762362     0.73790879    14.60984856
    24.28381463     0.73790879    14.60984856
    25.56191014     2.95163514    14.60984856
    23.00571913     2.95163514    14.60984856
    25.56191014     0.00000000    12.52272734
    28.11810115     0.00000000    12.52272734
    29.39619666     2.21372636    12.52272734
    26.84000565     2.21372636    12.52272734
    26.84000565     0.73790879    14.60984856
    29.39619666     0.73790879    14.60984856
    30.67429217     2.95163514    14.60984856
    28.11810115     2.95163514    14.60984856
    30.67429217     0.00000000    12.52272734
    33.23048318     0.00000000    12.52272734
    34.50857869     2.21372636    12.52272734
    31.95238767     2.21372636    12.52272734
    31.95238767     0.73790879    14.60984856
    34.50857869     0.73790879    14.60984856
    35.78667420     2.95163514    14.60984856
    33.23048318     2.95163514    14.60984856
    35.78667420     0.00000000    12.52272734
    38.34286521     0.00000000    12.52272734
    39.62096072     2.21372636    12.52272734
    37.06476970     2.21372636    12.52272734
    37.06476970     0.73790879    14.60984856
    39.62096072     0.73790879    14.60984856
    38.34286521     2.95163514    14.60984856
     0.00000000     4.42745271    12.52272734
     1.27809551     6.64117907    12.52272734
     1.27809551     5.16536150    14.60984856
     2.55619101     7.37908785    14.60984856
     0.00000000     7.37908785    14.60984856
     2.55619101     4.42745271    12.52272734
     5.11238203     4.42745271    12.52272734
     6.39047753     6.64117907    12.52272734
     3.83428652     6.64117907    12.52272734
     3.83428652     5.16536150    14.60984856
     6.39047753     5.16536150    14.60984856
     7.66857304     7.37908785    14.60984856
     5.11238203     7.37908785    14.60984856
     7.66857304     4.42745271    12.52272734
    10.22476406     4.42745271    12.52272734
    11.50285956     6.64117907    12.52272734
     8.94666855     6.64117907    12.52272734
     8.94666855     5.16536150    14.60984856
    11.50285956     5.16536150    14.60984856
    12.78095507     7.37908785    14.60984856
    10.22476406     7.37908785    14.60984856
    12.78095507     4.42745271    12.52272734
    15.33714608     4.42745271    12.52272734
    16.61524159     6.64117907    12.52272734
    14.05905058     6.64117907    12.52272734
    14.05905058     5.16536150    14.60984856
    16.61524159     5.16536150    14.60984856
    17.89333710     7.37908785    14.60984856
    15.33714608     7.37908785    14.60984856
    17.89333710     4.42745271    12.52272734
    20.44952811     4.42745271    12.52272734
    21.72762362     6.64117907    12.52272734
    19.17143260     6.64117907    12.52272734
    19.17143260     5.16536150    14.60984856
    21.72762362     5.16536150    14.60984856
    23.00571913     7.37908785    14.60984856
    20.44952811     7.37908785    14.60984856
    23.00571913     4.42745271    12.52272734
    25.56191014     4.42745271    12.52272734
    26.84000565     6.64117907    12.52272734
    24.28381463     6.64117907    12.52272734
    24.28381463     5.16536150    14.60984856
    26.84000565     5.16536150    14.60984856
    28.11810115     7.37908785    14.60984856
    25.56191014     7.37908785    14.60984856
    28.11810115     4.42745271    12.52272734
    30.67429217     4.42745271    12.52272734
    31.95238767     6.64117907    12.52272734
    29.39619666     6.64117907    12.52272734
    29.39619666     5.16536150    14.60984856
    31.95238767     5.16536150    14.60984856
    33.23048318     7.37908785    14.60984856
    30.67429217     7.37908785    14.60984856
    33.23048318     4.42745271    12.52272734
    35.78667420     4.42745271    12.52272734
    37.06476970     6.64117907    12.52272734
    34.50857869     6.64117907    12.52272734
    34.50857869     5.16536150    14.60984856
    37.06476970     5.16536150    14.60984856
    38.34286521     7.37908785    14.60984856
    35.78667420     7.37908785    14.60984856
    38.34286521     4.42745271    12.52272734
    39.62096072     6.64117907    12.52272734
    39.62096072     5.16536150    14.60984856
