ITEM: TIMESTEP
       0
ITEM: NUMBER OF ATOMS
            1376
ITEM: BOX BOUNDS ss ss ss
    -0.00000010    39.62096082
    -0.00000010    22.87517244
    -0.00000010    14.60984866
ITEM: ATOMS x y z
     0.00000000     2.95163514     2.08712122
     0.00000000     0.00000000     0.00000000
     2.55619101     0.00000000     0.00000000
     3.83428652     2.21372636     0.00000000
     1.27809551     2.21372636     0.00000000
     1.27809551     0.73790879     2.08712122
     3.83428652     0.73790879     2.08712122
     5.11238203     2.95163514     2.08712122
     2.55619101     2.95163514     2.08712122
     5.11238203     0.00000000     0.00000000
     7.66857304     0.00000000     0.00000000
     8.94666855     2.21372636     0.00000000
     6.39047753     2.21372636     0.00000000
     6.39047753     0.73790879     2.08712122
     8.94666855     0.73790879     2.08712122
    10.22476406     2.95163514     2.08712122
     7.66857304     2.95163514     2.08712122
    10.22476406     0.00000000     0.00000000
    12.78095507     0.00000000     0.00000000
    14.05905058     2.21372636     0.00000000
    11.50285956     2.21372636     0.00000000
    11.50285956     0.73790879     2.08712122
    14.05905058     0.73790879     2.08712122
    15.33714608     2.95163514     2.08712122
    12.78095507     2.95163514     2.08712122
    15.33714608     0.00000000     0.00000000
    17.89333710     0.00000000     0.00000000
    19.17143260     2.21372636     0.00000000
    16.61524159     2.21372636     0.00000000
    16.61524159     0.73790879     2.08712122
    19.17143260     0.73790879     2.08712122
    20.44952811     2.95163514     2.08712122
    17.89333710     2.95163514     2.08712122
    20.44952811     0.00000000     0.00000000
    23.00571913     0.00000000     0.00000000
    24.28381463     2.21372636     0.00000000
    21.72762362     2.21372636     0.00000000
    21.72762362     0.73790879     2.08712122
    24.28381463     0.73790879     2.08712122
    25.56191014     2.95163514     2.08712122
    23.00571913     2.95163514     2.08712122
    25.56191014     0.00000000     0.00000000
    28.11810115     0.00000000     0.00000000
    29.39619666     2.21372636     0.00000000
    26.84000565     2.21372636     0.00000000
    26.84000565     0.73790879     2.08712122
    29.39619666     0.73790879     2.08712122
    30.67429217     2.95163514     2.08712122
    28.11810115     2.95163514     2.08712122
    30.67429217     0.00000000     0.00000000
    33.23048318     0.00000000     0.00000000
    34.50857869     2.21372636     0.00000000
    31.95238767     2.21372636     0.00000000
    31.95238767     0.73790879     2.08712122
    34.50857869     0.73790879     2.08712122
    35.78667420     2.95163514     2.08712122
    33.23048318     2.95163514     2.08712122
    35.78667420     0.00000000     0.00000000
    38.34286521     0.00000000     0.00000000
    39.62096072     2.21372636     0.00000000
    37.06476970     2.21372636     0.00000000
    37.06476970     0.73790879     2.08712122
    39.62096072     0.73790879     2.08712122
    38.34286521     2.95163514     2.08712122
     0.00000000     4.42745271     0.00000000
     1.27809551     6.64117907     0.00000000
     1.27809551     5.16536150     2.08712122
     2.55619101     7.37908785     2.08712122
     0.00000000     7.37908785     2.08712122
     2.55619101     4.42745271     0.00000000
     5.11238203     4.42745271     0.00000000
     6.39047753     6.64117907     0.00000000
     3.83428652     6.64117907     0.00000000
     3.83428652     5.16536150     2.08712122
     6.39047753     5.16536150     2.08712122
     7.66857304     7.37908785     2.08712122
     5.11238203     7.37908785     2.08712122
     7.66857304     4.42745271     0.00000000
    10.22476406     4.42745271     0.00000000
    11.50285956     6.64117907     0.00000000
     8.94666855     6.64117907     0.00000000
     8.94666855     5.16536150     2.08712122
    11.50285956     5.16536150     2.08712122
    12.78095507     7.37908785     2.08712122
    10.22476406     7.37908785     2.08712122
    12.78095507     4.42745271     0.00000000
    15.33714608     4.42745271     0.00000000
    16.61524159     6.64117907     0.00000000
    14.05905058     6.64117907     0.00000000
    14.05905058     5.16536150     2.08712122
    16.61524159     5.16536150     2.08712122
    17.89333710     7.37908785     2.08712122
    15.33714608     7.37908785     2.08712122
    17.89333710     4.42745271    -0.00000000
    20.44952811     4.42745271    -0.00000000
    21.72762362     6.64117907    -0.00000000
    19.17143260     6.64117907    -0.00000000
    19.17143260     5.16536150     2.08712122
    21.72762362     5.16536150     2.08712122
    23.00571913     7.37908785     2.08712122
    20.44952811     7.37908785     2.08712122
    23.00571913     4.42745271    -0.00000000
    25.56191014     4.42745271    -0.00000000
    26.84000565     6.64117907    -0.00000000
    24.28381463     6.64117907    -0.00000000
    24.28381463     5.16536150     2.08712122
    26.84000565     5.16536150     2.08712122
    28.11810115     7.37908785     2.08712122
    25.56191014     7.37908785     2.08712122
    28.11810115     4.42745271     0.00000000
    30.67429217     4.42745271     0.00000000
    31.95238767     6.64117907     0.00000000
    29.39619666     6.64117907     0.00000000
    29.39619666     5.16536150     2.08712122
    31.95238767     5.16536150     2.08712122
    33.23048318     7.37908785     2.08712122
    30.67429217     7.37908785     2.08712122
    33.23048318     4.42745271    -0.00000000
    35.78667420     4.42745271    -0.00000000
    37.06476970     6.64117907    -0.00000000
    34.50857869     6.64117907    -0.00000000
    34.50857869     5.16536150     2.08712122
    37.06476970     5.16536150     2.08712122
    38.34286521     7.37908785     2.08712122
    35.78667420     7.37908785     2.08712122
    38.34286521     4.42745271     0.00000000
    39.62096072     6.64117907     0.00000000
    39.62096072     5.16536150     2.08712122
     0.00000000    11.80654056     2.08712122
     0.00000000     8.85490542     0.00000000
     2.55619101     8.85490542     0.00000000
     3.83428652    11.06863178     0.00000000
     1.27809551    11.06863178     0.00000000
     1.27809551     9.59281421     2.08712122
     3.83428652     9.59281421     2.08712122
     5.11238203    11.80654056     2.08712122
     2.55619101    11.80654056     2.08712122
     5.11238203     8.85490542     0.00000000
     7.66857304     8.85490542     0.00000000
     8.94666855    11.06863178     0.00000000
     6.39047753    11.06863178     0.00000000
     6.39047753     9.59281421     2.08712122
     8.94666855     9.59281421     2.08712122
    10.22476406    11.80654056     2.08712122
     7.66857304    11.80654056     2.08712122
    10.22476406     8.85490542     0.00000000
    12.78095507     8.85490542     0.00000000
    14.05905058    11.06863178     0.00000000
    11.50285956    11.06863178     0.00000000
    11.50285956     9.59281421     2.08712122
    14.05905058     9.59281421     2.08712122
    15.33714608    11.80654056     2.08712122
    12.78095507    11.80654056     2.08712122
    15.33714608     8.85490542     0.00000000
    17.89333710     8.85490542     0.00000000
    19.17143260    11.06863178     0.00000000
    16.61524159    11.06863178     0.00000000
    16.61524159     9.59281421     2.08712122
    19.17143260     9.59281421     2.08712122
    20.44952811    11.80654056     2.08712122
    17.89333710    11.80654056     2.08712122
    20.44952811     8.85490542    -0.00000000
    23.00571913     8.85490542    -0.00000000
    24.28381463    11.06863178    -0.00000000
    21.72762362    11.06863178    -0.00000000
    21.72762362     9.59281421     2.08712122
    24.28381463     9.59281421     2.08712122
    25.56191014    11.80654056     2.08712122
    23.00571913    11.80654056     2.08712122
    25.56191014     8.85490542     0.00000000
    28.11810115     8.85490542     0.00000000
    29.39619666    11.06863178     0.00000000
    26.84000565    11.06863178     0.00000000
    26.84000565     9.59281421     2.08712122
    29.39619666     9.59281421     2.08712122
    30.67429217    11.80654056     2.08712122
    28.11810115    11.80654056     2.08712122
    30.67429217     8.85490542    -0.00000000
    33.23048318     8.85490542    -0.00000000
    34.50857869    11.06863178    -0.00000000
    31.95238767    11.06863178    -0.00000000
    31.95238767     9.59281421     2.08712122
    34.50857869     9.59281421     2.08712122
    35.78667420    11.80654056     2.08712122
    33.23048318    11.80654056     2.08712122
    35.78667420     8.85490542    -0.00000000
    38.34286521     8.85490542    -0.00000000
    39.62096072    11.06863178    -0.00000000
    37.06476970    11.06863178    -0.00000000
    37.06476970     9.59281421     2.08712122
    39.62096072     9.59281421     2.08712122
    38.34286521    11.80654056     2.08712122
     0.00000000    13.28235813     0.00000000
     1.27809551    15.49608449     0.00000000
     1.27809551    14.02026692     2.08712122
     2.55619101    16.23399327     2.08712122
     0.00000000    16.23399327     2.08712122
     2.55619101    13.28235813     0.00000000
     5.11238203    13.28235813     0.00000000
     6.39047753    15.49608449     0.00000000
     3.83428652    15.49608449     0.00000000
     3.83428652    14.02026692     2.08712122
     6.39047753    14.02026692     2.08712122
     7.66857304    16.23399327     2.08712122
     5.11238203    16.23399327     2.08712122
     7.66857304    13.28235813     0.00000000
    10.22476406    13.28235813     0.00000000
    11.50285956    15.49608449     0.00000000
     8.94666855    15.49608449     0.00000000
     8.94666855    14.02026692     2.08712122
    11.50285956    14.02026692     2.08712122
    12.78095507    16.23399327     2.08712122
    10.22476406    16.23399327     2.08712122
    12.78095507    13.28235813     0.00000000
    15.33714608    13.28235813     0.00000000
    16.61524159    15.49608449     0.00000000
    14.05905058    15.49608449     0.00000000
    14.05905058    14.02026692     2.08712122
    16.61524159    14.02026692     2.08712122
    17.89333710    16.23399327     2.08712122
    15.33714608    16.23399327     2.08712122
    17.89333710    13.28235813    -0.00000000
    20.44952811    13.28235813    -0.00000000
    21.72762362    15.49608449    -0.00000000
    19.17143260    15.49608449    -0.00000000
    19.17143260    14.02026692     2.08712122
    21.72762362    14.02026692     2.08712122
    23.00571913    16.23399327     2.08712122
    20.44952811    16.23399327     2.08712122
    23.00571913    13.28235813     0.00000000
    25.56191014    13.28235813     0.00000000
    26.84000565    15.49608449     0.00000000
    24.28381463    15.49608449     0.00000000
    24.28381463    14.02026692     2.08712122
    26.84000565    14.02026692     2.08712122
    28.11810115    16.23399327     2.08712122
    25.56191014    16.23399327     2.08712122
    28.11810115    13.28235813    -0.00000000
    30.67429217    13.28235813    -0.00000000
    31.95238767    15.49608449    -0.00000000
    29.39619666    15.49608449    -0.00000000
    29.39619666    14.02026692     2.08712122
    31.95238767    14.02026692     2.08712122
    33.23048318    16.23399327     2.08712122
    30.67429217    16.23399327     2.08712122
    33.23048318    13.28235813     0.00000000
    35.78667420    13.28235813     0.00000000
    37.06476970    15.49608449     0.00000000
    34.50857869    15.49608449     0.00000000
    34.50857869    14.02026692     2.08712122
    37.06476970    14.02026692     2.08712122
    38.34286521    16.23399327     2.08712122
    35.78667420    16.23399327     2.08712122
    38.34286521    13.28235813     0.00000000
    39.62096072    15.49608449     0.00000000
    39.62096072    14.02026692     2.08712122
    -0.00000000    20.66144598     2.08712122
     0.00000000    17.70981084     0.00000000
     2.55619101    17.70981084     0.00000000
     3.83428652    19.92353720     0.00000000
     1.27809551    19.92353720     0.00000000
     1.27809551    18.44771963     2.08712122
     3.83428652    18.44771963     2.08712122
     5.11238203    20.66144598     2.08712122
     2.55619101    20.66144598     2.08712122
     5.11238203    17.70981084     0.00000000
     7.66857304    17.70981084     0.00000000
     8.94666855    19.92353720     0.00000000
     6.39047753    19.92353720     0.00000000
     6.39047753    18.44771963     2.08712122
     8.94666855    18.44771963     2.08712122
    10.22476406    20.66144598     2.08712122
     7.66857304    20.66144598     2.08712122
    10.22476406    17.70981084     0.00000000
    12.78095507    17.70981084     0.00000000
    14.05905058    19.92353720     0.00000000
    11.50285956    19.92353720     0.00000000
    11.50285956    18.44771963     2.08712122
    14.05905058    18.44771963     2.08712122
    15.33714608    20.66144598     2.08712122
    12.78095507    20.66144598     2.08712122
    15.33714608    17.70981084     0.00000000
    17.89333710    17.70981084     0.00000000
    19.17143260    19.92353720     0.00000000
    16.61524159    19.92353720     0.00000000
    16.61524159    18.44771963     2.08712122
    19.17143260    18.44771963     2.08712122
    20.44952811    20.66144598     2.08712122
    17.89333710    20.66144598     2.08712122
    20.44952811    17.70981084     0.00000000
    23.00571913    17.70981084     0.00000000
    24.28381463    19.92353720     0.00000000
    21.72762362    19.92353720     0.00000000
    21.72762362    18.44771963     2.08712122
    24.28381463    18.44771963     2.08712122
    25.56191014    20.66144598     2.08712122
    23.00571913    20.66144598     2.08712122
    25.56191014    17.70981084    -0.00000000
    28.11810115    17.70981084    -0.00000000
    29.39619666    19.92353720    -0.00000000
    26.84000565    19.92353720    -0.00000000
    26.84000565    18.44771963     2.08712122
    29.39619666    18.44771963     2.08712122
    30.67429217    20.66144598     2.08712122
    28.11810115    20.66144598     2.08712122
    30.67429217    17.70981084     0.00000000
    33.23048318    17.70981084     0.00000000
    34.50857869    19.92353720     0.00000000
    31.95238767    19.92353720     0.00000000
    31.95238767    18.44771963     2.08712122
    34.50857869    18.44771963     2.08712122
    35.78667420    20.66144598     2.08712122
    33.23048318    20.66144598     2.08712122
    35.78667420    17.70981084     0.00000000
    38.34286521    17.70981084     0.00000000
    39.62096072    19.92353720     0.00000000
    37.06476970    19.92353720     0.00000000
    37.06476970    18.44771963     2.08712122
    39.62096072    18.44771963     2.08712122
    38.34286521    20.66144598     2.08712122
    -0.00000000    22.13726355     0.00000000
     1.27809551    22.87517234     2.08712122
     2.55619101    22.13726355     0.00000000
     5.11238203    22.13726355     0.00000000
     3.83428652    22.87517234     2.08712122
     6.39047753    22.87517234     2.08712122
     7.66857304    22.13726355     0.00000000
    10.22476406    22.13726355     0.00000000
     8.94666855    22.87517234     2.08712122
    11.50285956    22.87517234     2.08712122
    12.78095507    22.13726355     0.00000000
    15.33714608    22.13726355     0.00000000
    14.05905058    22.87517234     2.08712122
    16.61524159    22.87517234     2.08712122
    17.89333710    22.13726355     0.00000000
    20.44952811    22.13726355     0.00000000
    19.17143260    22.87517234     2.08712122
    21.72762362    22.87517234     2.08712122
    23.00571913    22.13726355     0.00000000
    25.56191014    22.13726355     0.00000000
    24.28381463    22.87517234     2.08712122
    26.84000565    22.87517234     2.08712122
    28.11810115    22.13726355     0.00000000
    30.67429217    22.13726355     0.00000000
    29.39619666    22.87517234     2.08712122
    31.95238767    22.87517234     2.08712122
    33.23048318    22.13726355     0.00000000
    35.78667420    22.13726355     0.00000000
    34.50857869    22.87517234     2.08712122
    37.06476970    22.87517234     2.08712122
    38.34286521    22.13726355     0.00000000
    39.62096072    22.87517234     2.08712122
     0.00000000    -0.00000000     6.26136367
     5.11238203    -0.00000000     6.26136367
     2.55619101    -0.00000000     6.26136367
    10.22476406    -0.00000000     6.26136367
     7.66857304    -0.00000000     6.26136367
    15.33714608     0.00000000     6.26136367
    12.78095507     0.00000000     6.26136367
    20.44952811    -0.00000000     6.26136367
    17.89333710    -0.00000000     6.26136367
    25.56191014    -0.00000000     6.26136367
    23.00571913    -0.00000000     6.26136367
    30.67429217     0.00000000     6.26136367
    28.11810115     0.00000000     6.26136367
    35.78667420     0.00000000     6.26136367
    33.23048318     0.00000000     6.26136367
    38.34286521    -0.00000000     6.26136367
     0.00000000     1.47581757     4.17424245
     1.27809551     3.68954393     4.17424245
     1.27809551     2.21372636     6.26136367
     2.55619101     4.42745271     6.26136367
     0.00000000     4.42745271     6.26136367
     2.55619101     1.47581757     4.17424245
     5.11238203     1.47581757     4.17424245
     6.39047753     3.68954393     4.17424245
     3.83428652     3.68954393     4.17424245
     3.83428652     2.21372636     6.26136367
     6.39047753     2.21372636     6.26136367
     7.66857304     4.42745271     6.26136367
     5.11238203     4.42745271     6.26136367
     7.66857304     1.47581757     4.17424245
    10.22476406     1.47581757     4.17424245
    11.50285956     3.68954393     4.17424245
     8.94666855     3.68954393     4.17424245
     8.94666855     2.21372636     6.26136367
    11.50285956     2.21372636     6.26136367
    12.78095507     4.42745271     6.26136367
    10.22476406     4.42745271     6.26136367
    12.78095507     1.47581757     4.17424245
    15.33714608     1.47581757     4.17424245
    16.61524159     3.68954393     4.17424245
    14.05905058     3.68954393     4.17424245
    14.05905058     2.21372636     6.26136367
    16.61524159     2.21372636     6.26136367
    17.89333710     4.42745271     6.26136367
    15.33714608     4.42745271     6.26136367
    17.89333710     1.47581757     4.17424245
    20.44952811     1.47581757     4.17424245
    21.72762362     3.68954393     4.17424245
    19.17143260     3.68954393     4.17424245
    19.17143260     2.21372636     6.26136367
    21.72762362     2.21372636     6.26136367
    23.00571913     4.42745271     6.26136367
    20.44952811     4.42745271     6.26136367
    23.00571913     1.47581757     4.17424245
    25.56191014     1.47581757     4.17424245
    26.84000565     3.68954393     4.17424245
    24.28381463     3.68954393     4.17424245
    24.28381463     2.21372636     6.26136367
    26.84000565     2.21372636     6.26136367
    28.11810115     4.42745271     6.26136367
    25.56191014     4.42745271     6.26136367
    28.11810115     1.47581757     4.17424245
    30.67429217     1.47581757     4.17424245
    31.95238767     3.68954393     4.17424245
    29.39619666     3.68954393     4.17424245
    29.39619666     2.21372636     6.26136367
    31.95238767     2.21372636     6.26136367
    33.23048318     4.42745271     6.26136367
    30.67429217     4.42745271     6.26136367
    33.23048318     1.47581757     4.17424245
    35.78667420     1.47581757     4.17424245
    37.06476970     3.68954393     4.17424245
    34.50857869     3.68954393     4.17424245
    34.50857869     2.21372636     6.26136367
    37.06476970     2.21372636     6.26136367
    38.34286521     4.42745271     6.26136367
    35.78667420     4.42745271     6.26136367
    38.34286521     1.47581757     4.17424245
    39.62096072     3.68954393     4.17424245
    39.62096072     2.21372636     6.26136367
     0.00000000     8.85490542     6.26136367
     0.00000000     5.90327028     4.17424245
     2.55619101     5.90327028     4.17424245
     3.83428652     8.11699664     4.17424245
     1.27809551     8.11699664     4.17424245
     1.27809551     6.64117907     6.26136367
     3.83428652     6.64117907     6.26136367
     5.11238203     8.85490542     6.26136367
     2.55619101     8.85490542     6.26136367
     5.11238203     5.90327028     4.17424245
     7.66857304     5.90327028     4.17424245
     8.94666855     8.11699664     4.17424245
     6.39047753     8.11699664     4.17424245
     6.39047753     6.64117907     6.26136367
     8.94666855     6.64117907     6.26136367
    10.22476406     8.85490542     6.26136367
     7.66857304     8.85490542     6.26136367
    10.22476406     5.90327028     4.17424245
    12.78095507     5.90327028     4.17424245
    14.05905058     8.11699664     4.17424245
    11.50285956     8.11699664     4.17424245
    11.50285956     6.64117907     6.26136367
    14.05905058     6.64117907     6.26136367
    15.33714608     8.85490542     6.26136367
    12.78095507     8.85490542     6.26136367
    15.33714608     5.90327028     4.17424245
    17.89333710     5.90327028     4.17424245
    19.17143260     8.11699664     4.17424245
    16.61524159     8.11699664     4.17424245
    16.61524159     6.64117907     6.26136367
    19.17143260     6.64117907     6.26136367
    20.44952811     8.85490542     6.26136367
    17.89333710     8.85490542     6.26136367
    20.44952811     5.90327028     4.17424245
    23.00571913     5.90327028     4.17424245
    24.28381463     8.11699664     4.17424245
    21.72762362     8.11699664     4.17424245
    21.72762362     6.64117907     6.26136367
    24.28381463     6.64117907     6.26136367
    25.56191014     8.85490542     6.26136367
    23.00571913     8.85490542     6.26136367
    25.56191014     5.90327028     4.17424245
    28.11810115     5.90327028     4.17424245
    29.39619666     8.11699664     4.17424245
    26.84000565     8.11699664     4.17424245
    26.84000565     6.64117907     6.26136367
    29.39619666     6.64117907     6.26136367
    30.67429217     8.85490542     6.26136367
    28.11810115     8.85490542     6.26136367
    30.67429217     5.90327028     4.17424245
    33.23048318     5.90327028     4.17424245
    34.50857869     8.11699664     4.17424245
    31.95238767     8.11699664     4.17424245
    31.95238767     6.64117907     6.26136367
    34.50857869     6.64117907     6.26136367
    35.78667420     8.85490542     6.26136367
    33.23048318     8.85490542     6.26136367
    35.78667420     5.90327028     4.17424245
    38.34286521     5.90327028     4.17424245
    39.62096072     8.11699664     4.17424245
    37.06476970     8.11699664     4.17424245
    37.06476970     6.64117907     6.26136367
    39.62096072     6.64117907     6.26136367
    38.34286521     8.85490542     6.26136367
     0.00000000    10.33072299     4.17424245
     1.27809551    12.54444935     4.17424245
     1.27809551    11.06863178     6.26136367
     2.55619101    13.28235813     6.26136367
     0.00000000    13.28235813     6.26136367
     2.55619101    10.33072299     4.17424245
     5.11238203    10.33072299     4.17424245
     6.39047753    12.54444935     4.17424245
     3.83428652    12.54444935     4.17424245
     3.83428652    11.06863178     6.26136367
     6.39047753    11.06863178     6.26136367
     7.66857304    13.28235813     6.26136367
     5.11238203    13.28235813     6.26136367
     7.66857304    10.33072299     4.17424245
    10.22476406    10.33072299     4.17424245
    11.50285956    12.54444935     4.17424245
     8.94666855    12.54444935     4.17424245
     8.94666855    11.06863178     6.26136367
    11.50285956    11.06863178     6.26136367
    12.78095507    13.28235813     6.26136367
    10.22476406    13.28235813     6.26136367
    12.78095507    10.33072299     4.17424245
    15.33714608    10.33072299     4.17424245
    16.61524159    12.54444935     4.17424245
    14.05905058    12.54444935     4.17424245
    14.05905058    11.06863178     6.26136367
    16.61524159    11.06863178     6.26136367
    17.89333710    13.28235813     6.26136367
    15.33714608    13.28235813     6.26136367
    17.89333710    10.33072299     4.17424245
    20.44952811    10.33072299     4.17424245
    21.72762362    12.54444935     4.17424245
    19.17143260    12.54444935     4.17424245
    19.17143260    11.06863178     6.26136367
    21.72762362    11.06863178     6.26136367
    23.00571913    13.28235813     6.26136367
    20.44952811    13.28235813     6.26136367
    23.00571913    10.33072299     4.17424245
    25.56191014    10.33072299     4.17424245
    26.84000565    12.54444935     4.17424245
    24.28381463    12.54444935     4.17424245
    24.28381463    11.06863178     6.26136367
    26.84000565    11.06863178     6.26136367
    28.11810115    13.28235813     6.26136367
    25.56191014    13.28235813     6.26136367
    28.11810115    10.33072299     4.17424245
    30.67429217    10.33072299     4.17424245
    31.95238767    12.54444935     4.17424245
    29.39619666    12.54444935     4.17424245
    29.39619666    11.06863178     6.26136367
    31.95238767    11.06863178     6.26136367
    33.23048318    13.28235813     6.26136367
    30.67429217    13.28235813     6.26136367
    33.23048318    10.33072299     4.17424245
    35.78667420    10.33072299     4.17424245
    37.06476970    12.54444935     4.17424245
    34.50857869    12.54444935     4.17424245
    34.50857869    11.06863178     6.26136367
    37.06476970    11.06863178     6.26136367
    38.34286521    13.28235813     6.26136367
    35.78667420    13.28235813     6.26136367
    38.34286521    10.33072299     4.17424245
    39.62096072    12.54444935     4.17424245
    39.62096072    11.06863178     6.26136367
     0.00000000    17.70981084     6.26136367
     0.00000000    14.75817570     4.17424245
     2.55619101    14.75817570     4.17424245
     3.83428652    16.97190206     4.17424245
     1.27809551    16.97190206     4.17424245
     1.27809551    15.49608449     6.26136367
     3.83428652    15.49608449     6.26136367
     5.11238203    17.70981084     6.26136367
     2.55619101    17.70981084     6.26136367
     5.11238203    14.75817570     4.17424245
     7.66857304    14.75817570     4.17424245
     8.94666855    16.97190206     4.17424245
     6.39047753    16.97190206     4.17424245
     6.39047753    15.49608449     6.26136367
     8.94666855    15.49608449     6.26136367
    10.22476406    17.70981084     6.26136367
     7.66857304    17.70981084     6.26136367
    10.22476406    14.75817570     4.17424245
    12.78095507    14.75817570     4.17424245
    14.05905058    16.97190206     4.17424245
    11.50285956    16.97190206     4.17424245
    11.50285956    15.49608449     6.26136367
    14.05905058    15.49608449     6.26136367
    15.33714608    17.70981084     6.26136367
    12.78095507    17.70981084     6.26136367
    15.33714608    14.75817570     4.17424245
    17.89333710    14.75817570     4.17424245
    19.17143260    16.97190206     4.17424245
    16.61524159    16.97190206     4.17424245
    16.61524159    15.49608449     6.26136367
    19.17143260    15.49608449     6.26136367
    20.44952811    17.70981084     6.26136367
    17.89333710    17.70981084     6.26136367
    20.44952811    14.75817570     4.17424245
    23.00571913    14.75817570     4.17424245
    24.28381463    16.97190206     4.17424245
    21.72762362    16.97190206     4.17424245
    21.72762362    15.49608449     6.26136367
    24.28381463    15.49608449     6.26136367
    25.56191014    17.70981084     6.26136367
    23.00571913    17.70981084     6.26136367
    25.56191014    14.75817570     4.17424245
    28.11810115    14.75817570     4.17424245
    29.39619666    16.97190206     4.17424245
    26.84000565    16.97190206     4.17424245
    26.84000565    15.49608449     6.26136367
    29.39619666    15.49608449     6.26136367
    30.67429217    17.70981084     6.26136367
    28.11810115    17.70981084     6.26136367
    30.67429217    14.75817570     4.17424245
    33.23048318    14.75817570     4.17424245
    34.50857869    16.97190206     4.17424245
    31.95238767    16.97190206     4.17424245
    31.95238767    15.49608449     6.26136367
    34.50857869    15.49608449     6.26136367
    35.78667420    17.70981084     6.26136367
    33.23048318    17.70981084     6.26136367
    35.78667420    14.75817570     4.17424245
    38.34286521    14.75817570     4.17424245
    39.62096072    16.97190206     4.17424245
    37.06476970    16.97190206     4.17424245
    37.06476970    15.49608449     6.26136367
    39.62096072    15.49608449     6.26136367
    38.34286521    17.70981084     6.26136367
     0.00000000    19.18562841     4.17424245
     1.27809551    21.39935477     4.17424245
     1.27809551    19.92353720     6.26136367
     2.55619101    22.13726355     6.26136367
     0.00000000    22.13726355     6.26136367
     2.55619101    19.18562841     4.17424245
     5.11238203    19.18562841     4.17424245
     6.39047753    21.39935477     4.17424245
     3.83428652    21.39935477     4.17424245
     3.83428652    19.92353720     6.26136367
     6.39047753    19.92353720     6.26136367
     7.66857304    22.13726355     6.26136367
     5.11238203    22.13726355     6.26136367
     7.66857304    19.18562841     4.17424245
    10.22476406    19.18562841     4.17424245
    11.50285956    21.39935477     4.17424245
     8.94666855    21.39935477     4.17424245
     8.94666855    19.92353720     6.26136367
    11.50285956    19.92353720     6.26136367
    12.78095507    22.13726355     6.26136367
    10.22476406    22.13726355     6.26136367
    12.78095507    19.18562841     4.17424245
    15.33714608    19.18562841     4.17424245